125
Lattice="9.158616 0.0 0.0 0.0 9.158616 0.0 0.0 0.0 9.158616" Properties=species:S:1:pos:R:3:forces:R:3 virial="222.64807906606316 21.561432674983322 57.08570699995725 21.561432674983322 247.82551996948678 -13.553549356442273 57.08570699995725 -13.553549356442273 156.87636103904026" config_type=Amorphous_Bulk energy=-767.76801887 stress="-0.28982070014736794 -0.02806648743728816 -0.07430838676234915 -0.02806648743728816 -0.3225941405523224 0.017642636668787424 -0.07430838676234915 0.017642636668787424 -0.20420574470537176" free_energy=-767.82895626 pbc="T T T"
C        5.58247000       1.38811000       3.89455000       4.40248700       1.50898500       0.64787200
C        6.92753000       7.40436000       2.67810000       1.41870900      -0.73941300       3.47543900
C        4.44119000       8.10563000       2.66666000       1.17995800      -1.56947900      -1.86163800
C        4.02085000       6.83423000       6.49947000      -6.17466000       4.67305300      -2.66642300
C        3.67274000       2.91318000       8.49589000      -5.83200800       4.41867100       5.09140200
C        2.92425000       8.27138000       4.67771000       0.23132700      -1.02896900       0.27981200
C        4.66908000       4.57218000       6.57384000      -1.81014900       7.74021500       0.88203600
C        1.49203000       0.34617000       7.70697000      -1.94631400       1.72203700      -2.46745500
C        6.21724000       5.92604000       5.46028000      11.88837100       6.70983000       5.51796000
C        0.67334000       7.37167000       4.79648000       4.78583300      -1.55120100      -3.53467400
C        7.10130000       6.39972000       7.00379000      -2.41798600      -5.17714000       4.48599500
C        8.77819000       6.71229000       3.94444000       6.09038000      -8.32072700       8.10854100
C        5.72462000       0.99857000       6.76827000      -1.49506000     -14.25316500       3.23325800
C        3.19083000       7.84614000       7.18809000      -2.19733300       4.69223400       0.69318900
C        2.61452000       0.53908000       1.83632000       1.48514300      -0.90266700       4.57068600
C        0.61838000       6.91820000       0.28116000       3.77265200       5.07858100       3.09888100
C        6.54714000       6.12592000       8.63798000      -6.66167100      -6.78076500      -8.34318100
C        4.07047000       3.30598000       4.26506000       4.40331900       4.94584300       1.07507800
C        0.43927000       0.74159000       6.62460000       3.92201800      -0.23970500      -6.01700500
C        7.50518000       3.53616000       5.71763000       3.82397200      -0.90078100      -3.49625300
C        1.59114000       8.79427000       1.56659000      -0.27136100      -0.09598200      -1.62341300
C        5.34030000       8.75631000       0.13178000      -1.96500000       2.77378700       2.76497600
C        2.46939000       5.09824000       1.01741000      -0.04872000      -1.57632700       6.37319600
C        7.72598000       5.11878000       7.36111000       1.53237500       3.49816500      -4.83919200
C        8.12747000       5.90664000       5.00580000      -1.32733800      -5.61204300      -2.06464800
C        4.84792000       0.43038000       4.64963000       1.24876000      -1.51304800      -1.62429700
C        8.61530000       1.61091000       1.73760000      -2.86051300      -2.06183500      -0.60291200
C        1.29458000       4.58923000       3.19748000       3.55428800       3.09847500       1.77209600
C        3.29766000       2.04018000       7.41873000       7.14736900       0.11384300       4.83877700
C        6.09659000       6.48886000       3.55787000       3.20332800       5.70573100      -3.39590700
C        5.25916000       5.25026000       5.24526000     -13.20656000     -10.89386600       5.37623900
C        4.70013000       0.98345000       8.17798000       1.45441400      -0.12906900      -4.24222300
C        3.99026000       8.81798000       3.83350000      -1.31116100       2.47003500      -2.91065200
C        8.13142000       0.58994000       8.64030000       2.78309600      -0.64832900      -0.24142000
C        1.14890000       6.97352000       7.09991000      -2.76055000      -4.53763300       3.32336100
C        3.04273000       8.04481000       8.77288000       1.24014400      -3.42073100      -2.06057100
C        7.02655000       3.88852000       2.79297000       4.26465100      -4.47852400       0.07266400
C        0.94744000       3.84343000       4.50119000       2.16878100      -2.08639500      -3.53081100
C        5.25716000       5.31159000       1.43252000       2.42993700      -3.77046200       2.59175200
C        8.46424000       1.55772000       6.28415000      -4.87535900     -13.72600300       8.47228000
C        1.81343000       8.12555000       7.01883000      -1.74994900       0.57396400       2.11178600
C        4.01567000       2.62402000       6.46825000       7.24951400      -5.49328700      -2.78713000
C        7.01065000       3.81096000       1.34604000       2.96759700       4.18176300      -3.30678000
C        3.10590000       6.88618000       5.09486000      -1.40626500      -3.72607000       1.61275400
C        8.63742000       4.49581000       2.37202000      -0.71611300       3.36450600      -1.22436700
C        3.26063000       9.02065000       6.18678000       1.97931300       1.68626300       0.03609600
C        5.50375000       2.07910000       6.17147000      -1.10959000      10.72936200      -5.57246600
C        7.89849000       7.64953000       3.85045000      -4.20575900       7.44478800      -7.22449400
C        8.00465000       8.39561000       8.72072000       0.21505500      -8.29272900       0.79219400
C        5.08009000       3.39245000       8.62252000       2.40033300      -2.08466400       0.57205100
C        3.21345000       0.96270000       3.13047000      -0.17343000      -8.20449800      -2.02596900
C        8.26055000       7.92667000       6.35406000      -3.47306300       2.11825800      -2.70083000
C        0.55213000       4.86364000       8.87382000      -4.69153200      -4.63315500      -3.65171200
C        2.80612000       2.10105000       3.56976000      -4.70149500       1.40266100       0.38824900
C        5.79755000       3.81019000       0.77734000     -10.70042800       1.14519800       2.07761800
C        3.14332000       2.50169000       0.63375000       0.81032600      -5.37029900       2.86450400
C        6.57028000       2.90379000       6.75798000      -0.18786700       6.87625500      -0.07000200
C        6.09848000       7.23713000       5.26385000      -5.44993700       6.51068200       0.51465700
C        5.63682000       2.81743000       4.71137000      -2.53004600      -3.60881600      -4.44108500
C        1.06773000       4.16089000       5.92931000      -5.67274400      -0.33367900      -4.76115700
C        0.34082000       4.05396000       1.12427000       2.19316900      -0.91446800       5.13730300
C        2.67876000       1.10611000       6.74468000      -8.34829900      -4.56530300      -1.51757600
C        4.48645000       5.05346000       4.12368000       1.61562500      -1.05662000      -1.43027700
C        3.00099000       4.28164000       6.63537000       1.14612800       3.89301200      -3.44065200
C        2.63581000       5.32471000       8.91325000       0.75072300       2.03136500      -6.01497900
C        1.17029000       6.11276000       8.51300000       1.59785600      -4.68689500      -1.72299000
C        5.01007000       7.69308000       6.17631000       8.32819700       2.11973400      -5.23233600
C        7.27152000       6.95201000       9.11171000       4.32122800      12.86641300       6.56069400
C        8.23663000       4.83613000       5.92525000       1.96121200      -1.58438700       3.64942100
C        3.40080000       5.95064000       4.02496000       1.79359400      -0.10067900       2.11473600
C        6.95820000       2.34318000       8.03841000       2.72749800      -0.72741700       1.01598400
C        2.97106000       6.16694000       1.80504000      -1.10455700      -0.93223100       1.94657500
C        1.75475000       3.99273000       1.75538000      -1.78493400       2.82646400       2.73500100
C        7.48980000       1.16912000       7.46674000      -0.55798000      -0.28433300      -3.37658500
C        0.52480000       1.13787000       8.62610000       0.25242900      -0.21053200      -2.23911900
C        1.59408000       8.03459000       0.11518000      -0.12305400       2.40093500       4.23836500
C        6.50958000       7.70252000       0.98406000      11.67347800      -0.30701800       2.71020500
C        4.34775000       6.05808000       7.48995000       3.29143300      -5.79714400       5.44879400
C        6.87853000       3.66955000       4.32753000      -4.05732300       2.11855900       0.91817700
C        6.07022000       1.65158000       2.31278000      -0.41692900       0.83073400       2.25706900
C        5.25566000       7.66009000       1.22052000     -10.86768200       2.33864500       3.30876200
C        5.54849000       3.76902000       7.22207000      -0.74743200       1.95903600       4.69650800
C        5.56004000       2.97149000       2.10766000      -4.82779300       1.76302700       0.68441100
C        0.07814000       2.63636000       0.97566000      -1.66695700       4.32811500      -4.09748200
C        0.67156000       2.95533000       6.55130000       3.39815300       3.27991100      -1.78966700
C        8.03265000       3.05166000       8.90746000       0.57588200       2.32791300      -2.12929100
C        1.59434000       6.29057000       5.47696000       2.10797300       7.41559100       0.45716300
C        4.44071000       6.34052000       1.02616000      -0.85391000       2.83179300       0.96698000
C        1.83045000       5.23431000       6.24010000       2.16419500      -4.62760600      -0.32191400
C        5.51576000       5.44784000       3.03629000      -5.97109600      -5.39637300      -6.35129500
C        3.19902000       1.11753000       0.82971000       1.61416700       2.86600600      -5.78431900
C        0.27861000       8.60424000       5.78506000      -2.13562000       2.01643200      -4.05306300
C        7.01193000       8.35302000       4.98812000       1.25177000      -2.24349700      -2.90971900
C        1.40643000       2.32639000       4.39325000       3.99588000       0.00587500      -2.89589900
C        0.67255000       6.61316000       1.81354000      -2.84698500       5.51012400       0.21455100
C        8.36662000       0.43699000       4.89456000      -0.55655700       0.97406900       0.98068400
C        0.78247000       1.24119000       3.58075000      -5.01471300      -0.13195600      -1.68348300
C        2.76239000       2.97832000       2.09518000      -3.92613100       1.29779700      -6.05610800
C        6.90930000       5.39838000       4.17507000       1.97621000      -1.01680600       2.83926700
C        8.71867000       7.75258000       2.31047000      -4.43911300       4.65312900      -2.11284300
C        3.69732000       6.51242000       9.00751000       0.38928900      -1.76906900      -6.71642300
C        2.64269000       3.95861000       8.00645000      -0.63718400       2.35606300       1.31266000
C        0.40862000       0.59838000       2.28654000       3.76052800       0.47906200       2.05669300
C        0.99583000       3.69044000       8.04091000       5.80013800      -1.73640700      -0.68431400
C        4.78316000       9.10276000       5.97727000      -0.88298200       1.39318600       2.18362900
C        7.60887000       0.79537000       0.92731000      -0.78252800       1.98816100      -2.27055700
C        3.78774000       0.11210000       9.03739000       2.82721300       2.15237700       1.11888000
C        0.44759000       2.64660000       8.70112000      -2.48374000      -9.52957700       2.97185400
C        1.80052000       7.72177000       3.81619000      -0.69407300       2.60227100      -0.40476400
C        1.92620000       7.52714000       2.20521000      -2.13875800      -2.74432000       4.07519400
C        3.78938000       2.98318000       2.90668000       6.89978300       2.59325600       1.92151400
C        7.62086000       8.67193000       1.51840000      -0.21890900      -4.50813500      -0.22666700
C        2.58268000       5.48943000       3.05359000      -0.12649300       1.68560400       2.00585600
C        1.40213000       1.73459000       5.69653000       2.73684100      -0.16924800       8.75391200
C        8.98482000       7.29455000       7.12049000      -0.76782100      -3.25144300       4.52139900
C        3.40097000       3.18671000       5.52660000      -3.40708800       3.59305000      -2.79864500
C        7.58296000       1.99959000       2.78450000       2.88964400      -0.82697900       0.87958600
C        8.44935000       1.66866000       4.09195000       0.87912000      -0.63565900      -2.22189200
C        0.21993000       5.66866000       2.91086000      -0.33318200      -0.15419700      -2.14279800
C        5.94833000       1.19564000       0.82983000       4.53207600      -5.88577100       3.58529600
C        6.47102000       0.42157000       4.58378000       0.07086100      -1.60051600      -0.35582800
C        7.44305000       5.25126000       0.89786000       1.93971400      -1.50484700      -2.06315200
C        8.61720000       2.47891000       5.42090000      -3.16127700       8.28089100      -3.02309800
C        8.31906000       4.65973000       8.49724000      -3.09097800      -2.14390800       5.29251100
C        5.71661000       1.87791000       8.78446000      -2.61341700       3.84301000       0.08136600
2
Lattice="10.0 0.0 0.0 0.0 10.0 0.0 0.0 0.0 10.0" Properties=species:S:1:pos:R:3:forces:R:3 virial="-0.07133420779971981 0.0 0.0 0.0 16.898218116852462 0.0 0.0 0.0 -0.07133420779971981" config_type=Dimer energy=-5.62910323 stress="7.133420779971977e-05 -0.0 -0.0 -0.0 -0.01689821811685245 -0.0 -0.0 -0.0 7.133420779971977e-05" free_energy=-5.6293094 pbc="T T T"
C        0.00000000       0.00000000       0.00000000      -0.00000000     -15.13880400      -0.00000000
C        0.00000000       1.12069000       0.00000000       0.00000000      15.13880400       0.00000000
64
Lattice="13.4997 0.0 0.0 0.0 13.4997 0.0 0.0 0.0 13.4997" Properties=species:S:1:pos:R:3:forces:R:3 virial="-4.7016635342250375 0.0 0.0 0.0 -4.7016635342250375 -0.0 0.0 -0.0 -4.7016635342250375" config_type=SACADA energy=-429.1810604 stress="0.0019110814377450692 -0.0 -0.0 -0.0 0.0019110814377450692 0.0 -0.0 0.0 0.0019110814377450692" free_energy=-429.1810604 pbc="T T T"
C        1.16057000       8.96421000       8.96421000      -1.03953300       1.03953300       1.03953300
C        0.34978000       7.09963000       7.09963000       0.94992600       0.94992600       0.94992600
C        3.02515000       9.77500000       7.09963000      -0.94992600      -0.94992600       0.94992600
C        9.77500000       0.34978000       9.77500000      -0.94992600       0.94992600      -0.94992600
C        9.77500000       9.77500000       0.34978000      -0.94992600      -0.94992600       0.94992600
C        7.09963000       3.02515000       9.77500000       0.94992600      -0.94992600      -0.94992600
C        7.09963000       9.77500000       3.02515000       0.94992600      -0.94992600      -0.94992600
C        9.77500000       3.02515000       7.09963000      -0.94992600      -0.94992600       0.94992600
C        7.09963000       7.09963000       0.34978000       0.94992600       0.94992600       0.94992600
C        7.09963000       0.34978000       7.09963000       0.94992600       0.94992600       0.94992600
C        9.77500000       7.09963000       3.02515000      -0.94992600       0.94992600      -0.94992600
C        3.72470000      13.14992000       3.72470000       0.94992600      -0.94992600       0.94992600
C       13.14992000       3.72470000       3.72470000      -0.94992600       0.94992600       0.94992600
C       13.14992000      13.14992000      13.14992000      -0.94992600      -0.94992600      -0.94992600
C        3.02515000       7.09963000       9.77500000      -0.94992600       0.94992600      -0.94992600
C        3.72470000       3.72470000      13.14992000       0.94992600       0.94992600      -0.94992600
C        3.02515000       0.34978000       3.02515000      -0.94992600       0.94992600      -0.94992600
C        0.34978000       0.34978000       0.34978000       0.94992600       0.94992600       0.94992600
C        3.02515000       3.02515000       0.34978000      -0.94992600      -0.94992600       0.94992600
C        3.72470000       6.40007000      10.47455000       0.94992600      -0.94992600       0.94992600
C       10.47455000      13.14992000      10.47455000       0.94992600      -0.94992600       0.94992600
C       10.47455000       6.40007000       3.72470000       0.94992600      -0.94992600       0.94992600
C       13.14992000      10.47455000      10.47455000      -0.94992600       0.94992600       0.94992600
C        6.40007000       3.72470000      10.47455000      -0.94992600       0.94992600       0.94992600
C        6.40007000      10.47455000       3.72470000      -0.94992600       0.94992600       0.94992600
C       13.14992000       6.40007000       6.40007000      -0.94992600      -0.94992600      -0.94992600
C        6.40007000      13.14992000       6.40007000      -0.94992600      -0.94992600      -0.94992600
C        6.40007000       6.40007000      13.14992000      -0.94992600      -0.94992600      -0.94992600
C        3.72470000      10.47455000       6.40007000       0.94992600       0.94992600      -0.94992600
C        0.34978000       3.02515000       3.02515000       0.94992600      -0.94992600      -0.94992600
C        0.34978000       9.77500000       9.77500000       0.94992600      -0.94992600      -0.94992600
C       11.28534000      11.28534000      12.33913000      -1.03953300      -1.03953300       1.03953300
C       11.28534000       4.53549000       5.58928000      -1.03953300      -1.03953300       1.03953300
C        2.21436000       7.91042000       8.96421000       1.03953300      -1.03953300       1.03953300
C        1.16057000       7.91042000       7.91042000      -1.03953300      -1.03953300      -1.03953300
C        2.21436000       8.96421000       7.91042000       1.03953300       1.03953300      -1.03953300
C        8.96421000       1.16057000       8.96421000       1.03953300      -1.03953300       1.03953300
C        8.96421000       8.96421000       1.16057000       1.03953300       1.03953300      -1.03953300
C        7.91042000       2.21436000       8.96421000      -1.03953300       1.03953300       1.03953300
C        7.91042000       8.96421000       2.21436000      -1.03953300       1.03953300       1.03953300
C        8.96421000       2.21436000       7.91042000       1.03953300       1.03953300      -1.03953300
C        7.91042000       7.91042000       1.16057000      -1.03953300      -1.03953300      -1.03953300
C        7.91042000       1.16057000       7.91042000      -1.03953300      -1.03953300      -1.03953300
C        8.96421000       7.91042000       2.21436000       1.03953300      -1.03953300       1.03953300
C        4.53549000      12.33913000       4.53549000      -1.03953300       1.03953300      -1.03953300
C       12.33913000       4.53549000       4.53549000       1.03953300      -1.03953300      -1.03953300
C       12.33913000      12.33913000      12.33913000       1.03953300       1.03953300       1.03953300
C        4.53549000       4.53549000      12.33913000      -1.03953300      -1.03953300       1.03953300
C        1.16057000       2.21436000       2.21436000      -1.03953300       1.03953300       1.03953300
C        2.21436000       1.16057000       2.21436000       1.03953300      -1.03953300       1.03953300
C        1.16057000       1.16057000       1.16057000      -1.03953300      -1.03953300      -1.03953300
C        2.21436000       2.21436000       1.16057000       1.03953300       1.03953300      -1.03953300
C        4.53549000       5.58928000      11.28534000      -1.03953300       1.03953300      -1.03953300
C       11.28534000      12.33913000      11.28534000      -1.03953300       1.03953300      -1.03953300
C       11.28534000       5.58928000       4.53549000      -1.03953300       1.03953300      -1.03953300
C       12.33913000      11.28534000      11.28534000       1.03953300      -1.03953300      -1.03953300
C        5.58928000       4.53549000      11.28534000       1.03953300      -1.03953300      -1.03953300
C        5.58928000      11.28534000       4.53549000       1.03953300      -1.03953300      -1.03953300
C       12.33913000       5.58928000       5.58928000       1.03953300       1.03953300       1.03953300
C        5.58928000      12.33913000       5.58928000       1.03953300       1.03953300       1.03953300
C        5.58928000       5.58928000      12.33913000       1.03953300       1.03953300       1.03953300
C        4.53549000      11.28534000       5.58928000      -1.03953300      -1.03953300       1.03953300
C       10.47455000       3.72470000       6.40007000       0.94992600       0.94992600      -0.94992600
C       10.47455000      10.47455000      13.14992000       0.94992600       0.94992600      -0.94992600
20
Lattice="8.35401 0.0 0.0 0.0 8.75581 0.0 0.0 0.0 8.505224" Properties=species:S:1:pos:R:3:forces:R:3 virial="57.96136147830754 -2.18229293621978 -1.7144077277944612 -2.18229293621978 63.08456006319928 0.38617537207478436 -1.7144077277944612 0.38617537207478436 60.55411402917856" config_type=Fullerenes energy=-129.97049878 stress="-0.09316686940885863 0.0035078092683650274 0.0027557323847325985 0.0035078092683650274 -0.10140187910049424 -0.0006207368070964678 0.0027557323847325985 -0.0006207368070964678 -0.0973344498823934" free_energy=-130.04467917 pbc="T T T"
C        5.71017000       3.72910000       3.32132000       3.87755100      -1.61517100      -2.72260700
C        2.59837000       5.03063000       5.14363000      -3.19314900       1.55410200       3.04545700
C        3.67931000       5.00653000       5.97878000      -1.22172200       2.59401900       4.01506500
C        4.64755000       5.78210000       5.40882000       0.57951300       4.10950000       2.78183200
C        5.72379000       5.00506000       5.11942000       3.91528500       1.15266000       2.43770800
C        4.18372000       3.73948000       6.05522000       0.01950400      -2.64778800       4.16410400
C        5.43626000       3.72625000       5.51760000       2.97159300      -0.96072700       3.13103200
C        5.43449000       2.95127000       4.39863000       2.63248500      -4.74416200       0.37252600
C        2.45000000       3.74732000       4.70371000      -4.12885100      -2.11930000       1.02474900
C        3.41804000       2.94843000       5.25417000      -2.59127200      -3.01899300       2.88486500
C        4.17019000       2.45000000       4.23193000       1.28645000      -4.99695800       0.12076400
C        2.92844000       5.00858000       2.98782000      -2.71681700       1.44497400      -3.65617900
C        2.64022000       3.72851000       3.36169000      -4.20212400      -1.07912300      -2.23667700
C        3.69480000       2.92040000       3.04760000      -1.58377400      -3.42798400      -2.84976600
C        4.94959000       5.81052000       3.23116000       2.10307800       3.07265800      -3.06559700
C        4.18382000       5.00741000       2.45000000      -1.09698600       2.30289700      -4.56254900
C        4.63354000       3.72067000       2.48214000       2.47818900      -1.97184200      -4.04027400
C        5.90401000       5.00280000       3.77643000       4.21709800       1.89061100      -1.21669000
C        2.90247000       5.83188000       4.07680000      -3.35587200       3.64856500      -0.54264400
C        4.16245000       6.30581000       4.23282000       0.00982200       4.81206100       0.91488000
32
Lattice="7.511 0.0 0.0 0.0 7.511 0.0 0.0 0.0 7.511" Properties=species:S:1:pos:R:3:forces:R:3 virial="33.07625162715896 -4.117647767245215 2.895804581988671 -4.117647767245215 10.843624870894065 11.45650357072615 2.895804581988671 11.45650357072615 6.111479823264422" config_type=SACADA energy=-215.39278955 stress="-0.07805900321872929 0.009717530388270163 -0.006834015587203355 0.009717530388270163 -0.025590643046287546 -0.027037019163574108 -0.006834015587203355 -0.027037019163574108 -0.014422916737145788" free_energy=-215.40473231 pbc="T T T"
C        6.76500000       4.59900000       0.80600000       2.09659900      -0.57310500      -1.43696600
C        2.57600000       3.29400000       0.16100000       1.66865200      -1.40854400       1.47073100
C        6.81700000       4.75800000       5.35400000       4.62854300       1.44090700       2.75466100
C        2.69300000       6.11000000       5.95100000       1.76799700       0.39976500       0.88987400
C        6.45300000       0.38000000       1.01800000       1.92080900      -1.24762100       2.07848100
C        5.68600000       5.24200000       1.11200000       3.11919700      -2.53456600      -1.37549500
C        3.59300000       2.93200000       6.90700000      -0.11732500       0.72540200      -0.08494700
C        2.39600000       6.08000000       2.47500000       5.95762500       0.39724000      -2.09370900
C        6.72100000       1.62100000       5.49800000      -0.02245900      -1.00578600      -0.78841500
C        3.23800000       2.76500000       2.68700000       1.57789800       0.51650500       0.06377600
C        3.52300000       7.05500000       5.98300000      -1.34119200      -1.11277000      -0.25035800
C        5.77400000       4.55700000       4.77800000       2.82882800       3.32846600       3.63141200
C        0.58100000       5.89700000       4.14300000       0.18227400       3.01960000      -3.78575500
C        0.87300000       2.43500000       3.66600000      -0.28718200      -1.06262100      -0.19982700
C        7.40000000       6.61100000       3.04600000       3.19375000      -2.88596000       5.01968500
C        1.79500000       2.78800000       2.70600000      -2.89324300      -2.50602700       3.25115000
C        0.07700000       1.78600000       4.55700000       1.62429500       2.55962100      -1.51269500
C        1.31000000       6.31200000       3.03600000      -2.01258700      -0.12597000       2.63812200
C        6.78100000       7.17700000       2.16000000      -4.38265300       5.69455300      -7.23769400
C        2.55800000       2.74300000       1.50900000      -0.28520500       1.01266400      -0.21530800
C        1.56300000       4.12500000       7.27800000       0.12338400       2.23196900      -1.43394100
C        6.41600000       0.97800000       7.38900000      -1.75901200      -0.19730700      -0.35669800
C        5.07700000       3.87100000       4.06800000      -5.58885900      -4.49495400      -4.52268700
C        0.42500000       4.19700000       0.41400000      -4.38966100       1.10058900       1.57812100
C        4.25100000       2.02000000       6.32100000      -0.21823500       0.35219000      -0.12011100
C        3.66400000       6.06900000       2.21800000      -5.50751500       0.70669200       1.17061400
C        0.69400000       5.30200000       5.33100000      -5.90342300      -1.39395600       0.50680100
C        4.19300000       0.67200000       6.02700000      -0.13192900      -1.34432400      -1.29919700
C        4.32300000       3.14400000       3.41700000      -1.01020300      -0.74721000      -1.10211800
C        1.73900000       5.18000000       6.19400000       0.40092700      -1.27271300       0.64276400
C        5.49100000       1.25100000       6.17700000       4.52994800       0.40120000       2.39524400
C        4.73200000       5.73700000       1.70000000       0.22995800       0.02607300      -0.27551500
