8
Lattice="2.9184891379435 0.0 0.0 0.0 2.9026528499127 0.0 0.0 0.0 8.0397824973586" Properties=species:S:1:pos:R:3:tags:I:1:masses:R:1:forces:R:3 energy=-64.92292296528012 stress="-0.0002564107895985581 0.0 0.0 0.0 -1.221130654549481e-05 0.0 0.0 0.0 -0.00026623200192425463" pbc="T T T"
Cr       1.45924457       1.45132642       6.40906372        0      51.99610000       0.00000000       0.00000000      -0.00310316
Cr       1.45924457       1.45132642       1.63071877        0      51.99610000       0.00000000       0.00000000       0.00310316
Cr       0.00000000       1.45132642       4.01989125        1      51.99610000       0.00000000       0.00000000       0.00000000
Al       0.00000000       0.00000000       0.00000000        0      26.98153800       0.00000000       0.00000000       0.00000000
B        1.45924457       0.00000000       4.88599275        0      10.81100000       0.00000000       0.00000000       0.00292214
B        1.45924457       0.00000000       3.15378975        0      10.81100000       0.00000000       0.00000000      -0.00292214
B        0.00000000       0.00000000       5.81428635        0      10.81100000       0.00000000       0.00000000      -0.00005622
B        0.00000000       0.00000000       2.22549614        0      10.81100000       0.00000000       0.00000000       0.00005622
6
Lattice="0.0 3.5373716141384 -2.2708055249745 0.0 3.5373716141384 2.2708055249745 9.4811377867585 0.0 0.0" Properties=species:S:1:pos:R:3:masses:R:1:forces:R:3 energy=-21.149563153559484 stress="-3.3137397398014586e-05 0.0 0.0 0.0 6.170341390675673e-05 5.244522609099264e-22 0.0 5.244522609099264e-22 -2.677720790796178e-05" pbc="T T T"
Mg       7.11085334       3.38408909       2.04159843      24.30500000       0.00000000       0.00240120      -0.00115325
Mg       2.37028445       3.69065414       2.04159843      24.30500000       0.00000000      -0.00240120      -0.00115325
Cl       7.11085334       4.47222226      -0.22984476      35.45300000      -0.00000000       0.00072699       0.00008650
Cl       2.37028445       2.60252097      -0.22984476      35.45300000       0.00000000      -0.00072699       0.00008650
Cl       4.74056889       3.53737161       2.03953250      35.45300000       0.00000000      -0.00000000       0.00106676
Cl       0.00000000       3.53737161       2.03953250      35.45300000       0.00000000      -0.00000000       0.00106676
36
Lattice="4.4326681383251 2.5592021428139 7.5782181473761 -4.4326681383251 2.5592021428139 7.5782181473761 0.0 -5.1184042857278 7.5782181473761" Properties=species:S:1:pos:R:3:masses:R:1:forces:R:3 energy=-289.77273716405034 stress="-0.00011608044788745858 -3.357406579770378e-21 -3.634758667244766e-21 -3.357406579770378e-21 -0.0001160804478913094 -5.105931740813871e-16 -3.634758667244766e-21 -5.105931740813871e-16 -5.4081452105565156e-05" pbc="T T T"
Na      -0.00000000      -0.00000000       0.06005749      22.98977000      -0.00000000       0.00000000      -0.00007693
Na       0.00000000       5.11840429       3.84941155      22.98977000       0.00000000      -0.00000000      -0.00075343
Zr       4.43266814       2.55920214       4.34822685      91.22400000      -0.00000000      -0.00000000      -0.00027915
Zr       0.00000000       5.11840429       7.13925707      91.22400000      -0.00000000       0.00000000      -0.00020657
Zr       0.00000000      -0.00000000       3.35005177      91.22400000      -0.00000000       0.00000000       0.00015731
Zr      -0.00000000       5.11840429       0.55906479      91.22400000       0.00000000       0.00000000       0.00009563
P       -1.28911659       2.23280114       5.74369455      30.97376100       0.00016784       0.00077372      -0.00009889
P        3.14356393       5.44479814       5.74369455      30.97376100      -0.00075398      -0.00024151      -0.00009889
P       -1.85444733       7.67761358       5.74369455      30.97376100       0.00058614      -0.00053221      -0.00009889
P        5.72171054       0.32633825       1.95462839      30.97376100       0.00010543       0.00011943      -0.00025204
P        5.72186379       4.79197755       1.95462839      30.97376100      -0.00015615       0.00003159      -0.00025204
P        1.85443009       2.55929063       1.95462839      30.97376100       0.00005072      -0.00015102      -0.00025204
O        3.47166945       1.25919358       5.68091695      15.99940000      -0.00227380      -0.00413681      -0.00173086
O        6.03900792       2.37695715       5.68091695      15.99940000       0.00471948       0.00009924      -0.00173086
O        3.78732705       4.04145570       5.68091695      15.99940000      -0.00244568       0.00403757      -0.00173086
O       -0.64530765       3.63614771       5.80645731      15.99940000      -0.00252146      -0.00465769       0.00215884
O        1.60632567       5.30067975       5.80645731      15.99940000       0.00529441       0.00014520       0.00215884
O       -0.96101802       6.41838539       5.80645731      15.99940000      -0.00277295       0.00451250       0.00215884
O        5.19300839       1.04023304       3.21586570      15.99940000       0.00247827      -0.00105260      -0.00488154
O        5.36796384       3.97716067       3.21586570      15.99940000      -0.00032756       0.00267254      -0.00488154
O        2.73703218       2.66021272       3.21586570      15.99940000      -0.00215071      -0.00161994      -0.00488154
O        5.36819430       1.14146976       0.69346567      15.99940000      -0.00034270      -0.00313397       0.00487659
O        5.19269732       4.07825776       0.69346567      15.99940000       0.00288544       0.00127020       0.00487659
O        2.73711279       2.45787891       0.69346567      15.99940000      -0.00254275       0.00186377       0.00487659
O        0.64491129       6.60077920       1.89181475      15.99940000       0.00255920       0.00434536      -0.00183562
O       -1.60622998       4.93572639       1.89181475      15.99940000      -0.00504279       0.00004365      -0.00183562
O        0.96131869       3.81870727       1.89181475      15.99940000       0.00248360      -0.00438901      -0.00183562
O        7.92992722       1.41785850       7.00489703      15.99940000       0.00029498       0.00261591      -0.00448640
O        3.67247119       6.15858918       7.00489703      15.99940000      -0.00241294      -0.00105250      -0.00448640
O        1.69560600       0.10115875       7.00489703      15.99940000       0.00211796      -0.00156342      -0.00448640
O       -0.76022822       1.51895584       4.48251061      15.99940000      -0.00249600       0.00104563       0.00436312
O        3.49732790       6.25975155       4.48251061      15.99940000       0.00034246      -0.00268441       0.00436312
O       -2.73709968       7.57650546       4.48251061      15.99940000       0.00215354       0.00163879       0.00436312
O        0.96063832       1.30034205       2.01735361      15.99940000       0.00244105       0.00329038       0.00224118
O        2.82621973       7.85937259       2.01735361      15.99940000      -0.00407008       0.00046883       0.00224118
O       -3.78685805       6.19549822       2.01735361      15.99940000       0.00162902      -0.00375920       0.00224118
6
Lattice="-2.0521163479303 2.0521163479303 4.3859111675295 2.0521163479303 -2.0521163479303 4.3859111675295 2.0521163479303 2.0521163479303 -4.3859111675295" Properties=species:S:1:pos:R:3:masses:R:1:forces:R:3 energy=-53.88988397794037 stress="0.0006650880705060526 1.39280903514778e-19 -1.9242817902620153e-20 1.39280903514778e-19 0.0006650880705060529 5.852815589178106e-20 -1.9242817902620153e-20 5.852815589178106e-20 0.0006609485180451535" pbc="T T T"
Ti       2.05211635       2.05211635       6.41492691      47.86700000       0.00000000       0.00000000       0.00020544
Ti       2.05211635       0.00000000       8.60788250      47.86700000      -0.00000000      -0.00000000       0.00020544
Ti       0.00000000       2.05211635       0.16393984      47.86700000       0.00000000       0.00000000      -0.00020544
Ti      -0.00000000       0.00000000       6.74280659      47.86700000      -0.00000000      -0.00000000      -0.00020544
N        0.00000000       0.00000000       0.00000000      14.00670000       0.00000000       0.00000000       0.00000000
N        2.05211635       0.00000000       6.57886675      14.00670000       0.00000000       0.00000000       0.00000000
44
Lattice="7.0301456089717 4.5728886331122 0.091593940399649 -7.0301456089717 4.5728886331122 -0.091593940399649 -0.64429489798383 0.0 9.7325698186596" Properties=species:S:1:pos:R:3:masses:R:1:tags:I:1:forces:R:3 energy=-242.6561161267091 stress="-0.013047633881199503 3.6529488106941077e-20 -0.006680131792196605 3.6529488106941077e-20 -0.02003707865257006 -4.295719664472382e-19 -0.006680131792196605 -4.295719664472382e-19 -0.012023472622659466" pbc="T T T"
Al      10.35753227       8.27613168       9.81919655      26.98153800        0      -0.33657136       0.13610480       0.16913418
Al       2.73631660       8.27613168       4.96284606      26.98153800        0       0.33657136       0.13610480      -0.16913418
Al       3.05846405       0.86964559       0.09656115      26.98153800        0       0.33657136      -0.13610480      -0.16913418
Al      10.67967972       0.86964559       4.95291164      26.98153800        0      -0.33657136      -0.13610480       0.16913418
Ca       9.93118112       2.12162120       7.97581476      40.07800000        0      -0.00967120      -0.08658201       0.17530093
Ca       3.16266775       2.12162120       6.80622785      40.07800000        0       0.00967120      -0.08658201      -0.17530093
Ca       3.48481520       7.02415606       1.93994294      40.07800000        0       0.00967120       0.08658201      -0.17530093
Ca      10.25332857       7.02415606       3.10952985      40.07800000        0      -0.00967120       0.08658201       0.17530093
Ca       6.86907188       4.16862327       2.52473640      40.07800000        0      -0.00000000       0.13984662      -0.00000000
Ca       6.54692444       4.97715400       7.39102130      40.07800000        0       0.00000000      -0.13984662      -0.00000000
S        6.86907188       7.31806758       2.52473640      32.06500000        0      -0.00000000       0.03305827       0.00000000
S        6.54692444       1.82770968       7.39102130      32.06500000        0      -0.00000000      -0.03305827      -0.00000000
O        8.18020597       2.38766509       1.69302959      15.99940000        0       1.10095270       1.26054620       0.75799189
O        5.55793780       2.38766509       3.35644320      15.99940000        0      -1.10095270       1.26054620      -0.75799189
O        5.23579035       6.75811218       8.22272811      15.99940000        0      -1.10095270      -1.26054620      -0.75799189
O        7.85805852       6.75811218       6.55931450      15.99940000        0       1.10095270      -1.26054620       0.75799189
O        1.68180352      -0.22401198       0.81780740      15.99940000        0      -0.34127320      -0.16595940       0.27990916
O       12.05634025      -0.22401198       4.23166539      15.99940000        0       0.34127320      -0.16595940      -0.27990916
O       11.73419280       9.36978924       9.09795030      15.99940000        0       0.34127320       0.16595940      -0.27990916
O        1.35965607       9.36978924       5.68409231      15.99940000        0      -0.34127320       0.16595940       0.27990916
O        2.98931529       8.29627484       9.65496862      15.99940000        0       0.38155315       0.17489293      -0.51375822
O       10.10453358       8.29627484       5.12707399      15.99940000        0      -0.38155315       0.17489293       0.51375822
O       10.42668103       0.84950242       0.26078908      15.99940000        0      -0.38155315      -0.17489293       0.51375822
O        3.31146274       0.84950242       4.78868371      15.99940000        0       0.38155315      -0.17489293      -0.51375822
O       10.12032289       0.24631103       3.26024750      15.99940000        0       0.37467079      -0.05603825       0.08708548
O        3.61782088       0.24631103       1.78922529      15.99940000        0      -0.37467079      -0.05603825      -0.08708548
O        3.29567343       8.89946624       6.65551020      15.99940000        0      -0.37467079       0.05603825      -0.08708548
O        9.79817544       8.89946624       8.12653241      15.99940000        0       0.37467079       0.05603825       0.08708548
O        1.49211715       1.15995032       8.25670792      15.99940000        0      -1.11090343      -0.21415410      -0.82257531
O       11.60173173       1.15995032       6.52533469      15.99940000        0       1.11090343      -0.21415410       0.82257531
O       11.92387917       7.98582694       1.65904978      15.99940000        0       1.11090343       0.21415410       0.82257531
O        1.81426459       7.98582694       3.39042301      15.99940000        0      -1.11090343       0.21415410      -0.82257531
O        9.62778040       7.16129833       0.66829240      15.99940000        1       0.25230451       0.40242940       0.00553425
O        4.11036337       7.16129833       4.38118039      15.99940000        1      -0.25230451       0.40242940      -0.00553425
O        3.78821592       1.98447893       9.24746530      15.99940000        1      -0.25230451      -0.40242940      -0.00553425
O        9.30563295       1.98447893       5.53457731      15.99940000        1       0.25230451      -0.40242940       0.00553425
O        7.39057936       8.24537140       1.49367978      15.99940000        1       0.65881540      -0.18414720      -0.23471112
O        6.34756441       8.24537140       3.55579301      15.99940000        1      -0.65881540      -0.18414720       0.23471112
O        6.02541696       0.90040587       8.42207792      15.99940000        1      -0.65881540       0.18414720       0.23471112
O        7.06843191       0.90040587       6.35996469      15.99940000        1       0.65881540       0.18414720      -0.23471112
O        7.60969920       2.73481219       7.92423608      15.99940000        2       0.00044385       0.09555132      -0.01977509
O        5.48414967       2.73481219       6.85780653      15.99940000        2      -0.00044385       0.09555132       0.01977509
O        5.80629712       6.41096507       1.99152162      15.99940000        2      -0.00044385      -0.09555132       0.01977509
O        7.93184665       6.41096507       3.05795117      15.99940000        2       0.00044385      -0.09555132      -0.01977509
