10
Lattice="6.0 0.0 0.0 0.0 6.0 0.0 0.0 0.0 6.0" Properties=species:S:1:pos:R:3:dftb_forces_eV_per_Ang:R:3:forces:R:3 index=0 energy=-291.0517897517408 dftb_energy_eV=-291.0517897517408 pos_unit=angstrom pbc="F F F"
O        4.33194475       2.18328178       3.01167023       0.33867358      -0.72635788      -0.07924036       0.33867358      -0.72635788      -0.07924036
C        3.78969919       3.47236085       2.98037008      -1.11591029       0.38093566       1.07255911      -1.11591029       0.38093566       1.07255911
C        2.28660863       3.45722806       3.01419351       0.14416701      -0.43484940      -0.21012373       0.14416701      -0.43484940      -0.21012373
C        1.55405622       2.33802104       2.99647256       1.10481542      -0.19941833      -0.11346581       1.10481542      -0.19941833      -0.11346581
H        5.30198126       2.30350292       3.00225192       0.13274518      -0.25250985       0.00157916       0.13274518      -0.25250985       0.00157916
H        4.15447300       4.06405502       3.85488510       0.02210022       0.08397515       0.36861262       0.02210022       0.08397515       0.36861262
H        4.17940979       4.04158240       2.14311946       0.14734256       0.47928205      -1.15069568       0.14734256       0.47928205      -1.15069568
H        1.81083362       4.43323368       3.05501371      -0.22232780       0.44570504       0.01302838      -0.22232780       0.44570504       0.01302838
H        0.46478729       2.31425404       3.00022214      -0.06732319       0.10015744       0.05638690      -0.06732319       0.10015744       0.05638690
H        2.12620627       1.39248019       2.94180127      -0.48428270       0.12308014       0.04135939      -0.48428270       0.12308014       0.04135939
10
Lattice="6.0 0.0 0.0 0.0 6.0 0.0 0.0 0.0 6.0" Properties=species:S:1:pos:R:3:dftb_forces_eV_per_Ang:R:3:forces:R:3 index=100 energy=-291.0957090131394 dftb_energy_eV=-291.0957090131394 pos_unit=angstrom pbc="F F F"
O        4.32090761       2.18720670       2.98549193       0.70328483      -0.52265664       0.17464850       0.70328483      -0.52265664       0.17464850
C        3.80549105       3.49566067       2.97471876      -1.21713708      -0.07199528       0.26767638      -1.21713708      -0.07199528       0.26767638
C        2.31027438       3.45711173       2.99402945       0.15734888       0.14180540       0.00168743       0.15734888       0.14180540       0.00168743
C        1.59382464       2.33875228       2.97583857      -0.29197178      -0.23927794       0.15222541      -0.29197178      -0.23927794       0.15222541
H        5.29827942       2.24567432       3.08210131      -0.18276152      -0.07849635      -0.05026038      -0.18276152      -0.07849635      -0.05026038
H        4.12046840       4.09242542       3.85418092       0.42558980       0.11337341       0.30369731       0.42558980       0.11337341       0.30369731
H        4.12993397       4.03771861       2.08130323       0.39009337       0.48883458      -0.64436635       0.39009337       0.48883458      -0.64436635
H        1.82581820       4.43405194       3.05507065      -0.20563209       0.25196401      -0.06585373      -0.20563209       0.25196401      -0.06585373
H        0.49541535       2.33734907       3.02599015       0.20601275       0.07919368      -0.04972565       0.20601275       0.07919368      -0.04972565
H        2.09958698       1.37404926       2.97127503       0.01517285      -0.16274488      -0.08972892       0.01517285      -0.16274488      -0.08972892
10
Lattice="6.0 0.0 0.0 0.0 6.0 0.0 0.0 0.0 6.0" Properties=species:S:1:pos:R:3:dftb_forces_eV_per_Ang:R:3:forces:R:3 index=200 energy=-290.898327227259 dftb_energy_eV=-290.898327227259 pos_unit=angstrom pbc="F F F"
O        4.28925720       2.17097216       2.91218259      -0.15491422       0.66718607       0.39815668      -0.15491422       0.66718607       0.39815668
C        3.79568347       3.51754599       3.04613442      -1.64894032      -0.99330228       0.04904432      -1.64894032      -0.99330228       0.04904432
C        2.27161088       3.45247953       2.91272186       1.22438665       1.21256409      -0.00352646       1.22438665       1.21256409      -0.00352646
C        1.56655648       2.33192366       3.03973891       0.29197843      -1.25922372      -0.23332063       0.29197843      -1.25922372      -0.23332063
H        5.23392573       2.25195848       3.10288499       0.78855442      -0.36437164       0.05530381       0.78855442      -0.36437164       0.05530381
H        4.10691371       4.01712488       4.01074021      -0.09333034      -0.39762798      -0.11391767      -0.09333034      -0.39762798      -0.11391767
H        4.22445276       4.13787102       2.24638794       0.10627450       0.40545648      -0.44958938       0.10627450       0.40545648      -0.44958938
H        1.85289302       4.45287084       2.67486830      -0.37650794      -0.36506793       0.10157944      -0.37650794      -0.36506793       0.10157944
H        0.45241180       2.28224456       2.83196753       1.16231644      -0.00222022       0.38598407       1.16231644      -0.00222022       0.38598407
H        2.20629492       1.38500892       3.22237325      -1.29981761       1.09660712      -0.18971418      -1.29981761       1.09660712      -0.18971418
10
Lattice="6.0 0.0 0.0 0.0 6.0 0.0 0.0 0.0 6.0" Properties=species:S:1:pos:R:3:dftb_forces_eV_per_Ang:R:3:forces:R:3 index=300 energy=-290.4957816671312 dftb_energy_eV=-290.4957816671312 pos_unit=angstrom pbc="F F F"
O        4.25351986       2.14619414       2.84078859       2.64024491       2.37251996       1.40710602       2.64024491       2.37251996       1.40710602
C        3.82353035       3.54817907       3.06451532      -2.25804838      -1.36047122      -2.66098785      -2.25804838      -1.36047122      -2.66098785
C        2.30052331       3.44855259       2.77917517       0.44640486       0.33931601       1.00384089       0.44640486       0.33931601       1.00384089
C        1.63025186       2.30209325       3.06459170      -1.48724175       4.08163751      -1.34665640      -1.48724175       4.08163751      -1.34665640
H        5.22383246       2.27061103       3.14372275      -1.19366746      -1.16136122      -0.64386418      -1.19366746      -1.16136122      -0.64386418
H        3.98236415       3.92118136       4.07342140       0.26099763      -0.11417175       0.91187866       0.26099763      -0.11417175       0.91187866
H        4.39461646       4.27992074       2.37559883      -0.62640881      -0.77003078       0.38711154      -0.62640881      -0.77003078       0.38711154
H        1.78259132       4.42814449       2.53000558       0.20167331      -0.92088666       0.33172767       0.20167331      -0.92088666       0.33172767
H        0.52694902       2.26141838       2.98028270       0.38287423       0.13199429      -0.07935571       0.38287423       0.13199429      -0.07935571
H        2.08182124       1.39370493       3.14789792       1.63317146      -2.59854615       0.68919936       1.63317146      -2.59854615       0.68919936
10
Lattice="6.0 0.0 0.0 0.0 6.0 0.0 0.0 0.0 6.0" Properties=species:S:1:pos:R:3:dftb_forces_eV_per_Ang:R:3:forces:R:3 index=400 energy=-290.8382697472469 dftb_energy_eV=-290.8382697472469 pos_unit=angstrom pbc="F F F"
O        4.20668298       2.20224455       2.90861027       2.07390121      -0.91083513      -0.29802719       2.07390121      -0.91083513      -0.29802719
C        3.76782119       3.52904102       3.02458205       0.62018331      -0.17997699       0.29176665       0.62018331      -0.17997699       0.29176665
C        2.31478440       3.47421434       2.87074144      -2.30932405       0.79835649       0.02500305      -2.30932405       0.79835649       0.02500305
C        1.63727933       2.31391009       3.03702703      -0.42095376       1.91936868      -0.58871871      -0.42095376       1.91936868      -0.58871871
H        5.18651861       2.25933143       3.06593562      -0.51456603      -0.50177532      -0.14460698      -0.51456603      -0.50177532      -0.14460698
H        4.09989684       3.83769777       4.04741217      -0.32040447       0.73057956       0.13031420      -0.32040447       0.73057956       0.13031420
H        4.29894346       4.19118532       2.29550029      -0.14704136       0.12612223      -0.11328667      -0.14704136       0.12612223      -0.11328667
H        1.78762441       4.48599466       2.65991036       0.44835056      -1.40633805       0.46628305       0.44835056      -1.40633805       0.46628305
H        0.52899903       2.32977071       2.99485661       0.47706283      -0.21222533      -0.07551187       0.47706283      -0.21222533      -0.07551187
H        2.17144972       1.37661013       3.09542420       0.09279177      -0.36327613       0.30678446       0.09279177      -0.36327613       0.30678446
10
Lattice="6.0 0.0 0.0 0.0 6.0 0.0 0.0 0.0 6.0" Properties=species:S:1:pos:R:3:dftb_forces_eV_per_Ang:R:3:forces:R:3 index=500 energy=-287.37659359017783 dftb_energy_eV=-287.37659359017783 pos_unit=angstrom pbc="F F F"
O        4.22469231       2.19348213       2.76634083       4.04562332      -1.57967230       3.31550617       4.04562332      -1.57967230       3.31550617
C        3.80014398       3.50975320       2.84789952      -1.26020762       1.67342920      -0.32491401      -1.26020762       1.67342920      -0.32491401
C        2.29248574       3.44776323       2.88931640       1.51921853      -0.45672792      -0.53265448       1.51921853      -0.45672792      -0.53265448
C        1.63456091       2.27299777       2.88251834       0.61785819       2.54310880       0.41431513       0.61785819       2.54310880       0.41431513
H        5.20667490       2.08745197       4.11706732      -2.32701566      -0.17835641      -3.60159573      -2.32701566      -0.17835641      -3.60159573
H        4.20795485       3.95837548       3.75601099      -0.03435607       0.58367080       0.50251407      -0.03435607       0.58367080       0.50251407
H        4.16674420       4.23435441       2.00299500      -0.24975314      -1.05295565       0.45361709      -0.24975314      -1.05295565       0.45361709
H        1.77358874       4.40836456       2.77003297      -0.25289262      -0.07042405      -0.01495041      -0.25289262      -0.07042405      -0.01495041
H        0.62754163       2.58126506       2.86276479      -2.11567202      -1.21722755       0.02286222      -2.11567202      -1.21722755       0.02286222
H        2.06561276       1.30619219       3.10505380       0.05719708      -0.24484493      -0.23470007       0.05719708      -0.24484493      -0.23470007
10
Lattice="6.0 0.0 0.0 0.0 6.0 0.0 0.0 0.0 6.0" Properties=species:S:1:pos:R:3:dftb_forces_eV_per_Ang:R:3:forces:R:3 index=600 energy=-290.83516753767344 dftb_energy_eV=-290.83516753767344 pos_unit=angstrom pbc="F F F"
O        4.38652544       2.18345996       3.11351983       2.46039587      -0.10004643      -0.47161428       2.46039587      -0.10004643      -0.47161428
C        3.82021294       3.46938601       3.01937811      -1.93933906      -0.20262882      -0.90268456      -1.93933906      -0.20262882      -0.90268456
C        2.30196272       3.41399553       3.07619232       1.07945389       2.19585534       0.70861261       1.07945389       2.19585534       0.70861261
C        1.53930132       2.34718802       3.03125516       0.22102231      -1.00854369      -0.73885246       0.22102231      -1.00854369      -0.73885246
H        5.32924609       2.33358618       2.72089387      -1.72691529      -0.83569830       0.92264425      -1.72691529      -0.83569830       0.92264425
H        4.10742657       4.16441556       3.81714676       0.68404788       0.27680903       0.54957816       0.68404788       0.27680903       0.54957816
H        4.18767313       3.86475893       2.04557066      -0.28721223       0.64470654      -0.06022485      -0.28721223       0.64470654      -0.06022485
H        1.83598785       4.38826081       3.36209418       0.16121345      -0.25077032      -0.27627702       0.16121345      -0.25077032      -0.27627702
H        0.46642451       2.40348988       3.08895206      -0.54548064      -0.02887112       0.16084372      -0.54548064      -0.02887112       0.16084372
H        2.02523939       1.43145915       2.72499709      -0.10718618      -0.69081223       0.10797443      -0.10718618      -0.69081223       0.10797443
10
Lattice="6.0 0.0 0.0 0.0 6.0 0.0 0.0 0.0 6.0" Properties=species:S:1:pos:R:3:dftb_forces_eV_per_Ang:R:3:forces:R:3 index=700 energy=-290.8237980545956 dftb_energy_eV=-290.8237980545956 pos_unit=angstrom pbc="F F F"
O        4.27808487       2.19345294       3.11471114       0.75402390      -0.21949551       0.48584114       0.75402390      -0.21949551       0.48584114
C        3.76551562       3.51577358       3.02769895       0.50301863      -0.00075798      -2.59587856       0.50301863      -0.00075798      -2.59587856
C        2.29546684       3.50126277       3.14000828       0.00880346      -1.08061078       0.05475858       0.00880346      -1.08061078       0.05475858
C        1.63725877       2.35006897       2.99750587      -1.16150900      -0.13816290       0.04940019      -1.16150900      -0.13816290       0.04940019
H        5.22526431       2.18617426       2.82747513      -0.44201304       0.10658793       0.16247598      -0.44201304       0.10658793       0.16247598
H        4.20061517       4.24438099       3.73364385       0.54079965       0.10744322       0.24390481       0.54079965       0.10744322       0.24390481
H        4.02948320       3.85222058       1.88876875      -0.32846810       0.17369183       1.76991064      -0.32846810       0.17369183       1.76991064
H        1.82045483       4.42982416       3.36550544      -0.66500117       1.00488000      -0.14420292      -0.66500117       1.00488000      -0.14420292
H        0.50625872       2.29634504       2.93673436       1.15363794       0.01269639       0.32048100       1.15363794       0.01269639       0.32048100
H        2.24159771       1.43049674       2.96794825      -0.36329227       0.03372780      -0.34669086      -0.36329227       0.03372780      -0.34669086
10
Lattice="6.0 0.0 0.0 0.0 6.0 0.0 0.0 0.0 6.0" Properties=species:S:1:pos:R:3:dftb_forces_eV_per_Ang:R:3:forces:R:3 index=800 energy=-290.9273061887277 dftb_energy_eV=-290.9273061887277 pos_unit=angstrom pbc="F F F"
O        4.35437498       2.19355180       3.02301249       0.40169716      -0.19479721       0.06811650       0.40169716      -0.19479721       0.06811650
C        3.82027077       3.53320821       2.94062110       0.21585729      -0.92894390      -0.23442946       0.21585729      -0.92894390      -0.23442946
C        2.33264486       3.42373969       3.09288397       0.35789592       1.27699478      -0.76484123       0.35789592       1.27699478      -0.76484123
C        1.58405219       2.33491155       2.95041213      -0.31646847      -0.91557910       0.26692866      -0.31646847      -0.91557910       0.26692866
H        5.31481038       2.13211962       3.27217747      -0.62895480       0.60445567      -0.19889228      -0.62895480       0.60445567      -0.19889228
H        4.24304222       4.18282165       3.72846659       0.18763182       0.15431848       0.31460668       0.18763182       0.15431848       0.31460668
H        4.13112520       4.01653137       1.94660159      -0.41018578      -0.25778890       0.50044146      -0.41018578      -0.25778890       0.50044146
H        1.79394517       4.41023459       3.15753386       0.34412886      -0.53744810       0.07988507       0.34412886      -0.53744810       0.07988507
H        0.50757633       2.51282420       3.01820991      -0.17801733      -0.37454401      -0.01648677      -0.17801733      -0.37454401      -0.01648677
H        1.91815791       1.26005735       2.87008091       0.02641533       1.17333230      -0.01532862       0.02641533       1.17333230      -0.01532862
10
Lattice="6.0 0.0 0.0 0.0 6.0 0.0 0.0 0.0 6.0" Properties=species:S:1:pos:R:3:dftb_forces_eV_per_Ang:R:3:forces:R:3 index=900 energy=-290.320864431463 dftb_energy_eV=-290.320864431463 pos_unit=angstrom pbc="F F F"
O        4.31995530       2.19218457       2.94968984       2.68561761      -0.80136261       1.42950933       2.68561761      -0.80136261       1.42950933
C        3.84648109       3.49660361       3.05426771      -3.68337438      -1.18049453      -3.43911977      -3.68337438      -1.18049453      -3.43911977
C        2.31046540       3.41000384       3.02460592      -0.80387275       2.82871022      -1.93470645      -0.80387275       2.82871022      -1.93470645
C        1.53813262       2.31306475       3.05109794       0.86377545       0.39872734      -0.40157012       0.86377545       0.39872734      -0.40157012
H        5.25130219       2.29338020       3.33966159      -1.09658463      -0.90686169      -0.70935350      -1.09658463      -0.90686169      -0.70935350
H        4.16773684       4.01322323       3.87336671       1.25925661       1.51943520       3.12379698       1.25925661       1.51943520       3.12379698
H        4.23986716       4.05158812       2.16509301      -0.37635560       0.46793869      -0.09258781      -0.37635560       0.46793869      -0.09258781
H        1.77496380       4.44706947       2.60549038       1.11706748      -2.05140560       1.42924470       1.11706748      -2.05140560       1.42924470
H        0.44006891       2.42689615       2.83393811       0.92405429      -0.48061795       0.30395149       0.92405429      -0.48061795       0.30395149
H        2.11102671       1.35598606       3.10278878      -0.88958406       0.20593094       0.29083515      -0.88958406       0.20593094       0.29083515
10
Lattice="6.0 0.0 0.0 0.0 6.0 0.0 0.0 0.0 6.0" Properties=species:S:1:pos:R:3:dftb_forces_eV_per_Ang:R:3:forces:R:3 index=1000 energy=-290.97631456163646 dftb_energy_eV=-290.97631456163646 pos_unit=angstrom pbc="F F F"
O        4.39451229       2.16058924       3.10680867      -1.24474737       0.94709468       0.09980731      -1.24474737       0.94709468       0.09980731
C        3.82025098       3.49125447       3.02234990      -0.62806535      -0.45115162      -0.61427899      -0.62806535      -0.45115162      -0.61427899
C        2.31645476       3.43223651       3.14170872       0.12277687      -1.05149281      -0.18417424       0.12277687      -1.05149281      -0.18417424
C        1.54948937       2.33247086       3.01305608       0.58033089       0.32999402      -0.14005536       0.58033089       0.32999402      -0.14005536
H        5.33802735       2.28677436       2.99102614       1.17175586      -0.09601520      -0.11818823       1.17175586      -0.09601520      -0.11818823
H        4.32879590       4.21829565       3.71582517      -0.37136961      -0.38333697       0.29389510      -0.37136961      -0.38333697       0.29389510
H        4.02145939       3.96222909       2.01403514       0.17971808      -0.30165585      -0.01004434       0.17971808      -0.30165585      -0.01004434
H        1.79639231       4.37695881       3.15597155      -0.17239643       0.82896879       0.39911713      -0.17239643       0.82896879       0.39911713
H        0.44737922       2.38703596       3.05827827       0.36870455       0.08879095      -0.07143848       0.36870455       0.08879095      -0.07143848
H        1.98723840       1.35215505       2.78094033      -0.00670749       0.08880400       0.34536010      -0.00670749       0.08880400       0.34536010
10
Lattice="6.0 0.0 0.0 0.0 6.0 0.0 0.0 0.0 6.0" Properties=species:S:1:pos:R:3:dftb_forces_eV_per_Ang:R:3:forces:R:3 index=1100 energy=-290.5916247184528 dftb_energy_eV=-290.5916247184528 pos_unit=angstrom pbc="F F F"
O        4.30314698       2.19298069       3.09965847       3.87851605      -1.31194134      -2.42157885       3.87851605      -1.31194134      -2.42157885
C        3.77662387       3.49208014       3.01455191      -0.36033209       0.76011810       1.73007762      -0.36033209       0.76011810       1.73007762
C        2.28401848       3.49647276       3.06765813       0.06653364      -0.32124357      -0.75597668       0.06653364      -0.32124357      -0.75597668
C        1.62931885       2.32383029       3.01266963      -1.36712635       1.66243520       0.40434239      -1.36712635       1.66243520       0.40434239
H        5.26078095       2.19747196       2.52522317      -3.51530246      -0.11122539       2.21705457      -3.51530246      -0.11122539       2.21705457
H        4.11677959       4.04726331       3.93106786       0.16484825       0.37615635      -0.00792713       0.16484825       0.37615635      -0.00792713
H        4.22271504       4.00334970       2.17614356       0.06431376       0.69901867      -1.05296563       0.06431376       0.69901867      -1.05296563
H        1.78380742       4.52245132       3.09506770       0.32657743      -1.21279377       0.06558920       0.32657743      -1.21279377       0.06558920
H        0.52467313       2.37321703       3.10420163       0.37277072      -0.34654641      -0.14356832       0.37277072      -0.34654641      -0.14356832
H        2.09813573       1.35088281       2.97375796       0.36920105      -0.19397784      -0.03504717       0.36920105      -0.19397784      -0.03504717
10
Lattice="6.0 0.0 0.0 0.0 6.0 0.0 0.0 0.0 6.0" Properties=species:S:1:pos:R:3:dftb_forces_eV_per_Ang:R:3:forces:R:3 index=1200 energy=-290.90403928086613 dftb_energy_eV=-290.90403928086613 pos_unit=angstrom pbc="F F F"
O        4.36398676       2.18642656       2.92386437       0.15494784       0.25903538       0.07414603       0.15494784       0.25903538       0.07414603
C        3.82290724       3.49372170       3.03137205      -1.72178787      -0.93210620      -1.72435646      -1.72178787      -0.93210620      -1.72435646
C        2.33707849       3.41831938       2.92337914       0.51028128       1.37439422       0.19645733       0.51028128       1.37439422       0.19645733
C        1.57005874       2.36012588       3.00346659      -0.64445232      -3.00734897       0.60564003      -0.64445232      -3.00734897       0.60564003
H        5.30221716       2.34299050       3.09586769       0.86498755      -0.52683253       0.04152507       0.86498755      -0.52683253       0.04152507
H        4.11853829       3.97362624       3.93958568       0.50178694       0.70333245       1.32970547       0.50178694       0.70333245       1.32970547
H        4.11085776       4.15117321       2.17387914       0.61543657       0.01779882      -0.00800610       0.61543657       0.01779882      -0.00800610
H        1.89116350       4.38438533       2.74488491      -0.49278961       0.74443186      -0.11329062      -0.49278961       0.74443186      -0.11329062
H        0.45950953       2.34706406       2.94405610       0.59067475       0.36424686      -0.10893560       0.59067475       0.36424686      -0.10893560
H        2.02368251       1.34216712       3.21964436      -0.37908513       1.00304811      -0.29288515      -0.37908513       1.00304811      -0.29288515
10
Lattice="6.0 0.0 0.0 0.0 6.0 0.0 0.0 0.0 6.0" Properties=species:S:1:pos:R:3:dftb_forces_eV_per_Ang:R:3:forces:R:3 index=1300 energy=-291.06211894353083 dftb_energy_eV=-291.06211894353083 pos_unit=angstrom pbc="F F F"
O        4.29571469       2.18041302       3.04538364       0.38390417       0.19069762       0.10632316       0.38390417       0.19069762       0.10632316
C        3.81357666       3.51887853       2.97580849      -0.83416307      -0.45772800       0.30794738      -0.83416307      -0.45772800       0.30794738
C        2.32358069       3.43734986       3.05448272       0.10278474       1.50438119       0.25319421       0.10278474       1.50438119       0.25319421
C        1.60923310       2.32933558       2.98517642      -0.68668272      -0.29613405      -0.10172873      -0.68668272      -0.29613405      -0.10172873
H        5.26669425       2.23496217       3.01588381       0.41822818      -0.19608476      -0.01498607       0.41822818      -0.19608476      -0.01498607
H        4.21680470       4.18675978       3.78388070       0.03444357      -0.27992439       0.14809735       0.03444357      -0.27992439       0.14809735
H        4.13108224       4.00638945       2.03781348       0.11072842       0.16745865      -0.53495801       0.11072842       0.16745865      -0.53495801
H        1.78417953       4.39267702       3.22438633       0.18489571      -0.09511701      -0.15632989       0.18489571      -0.09511701      -0.15632989
H        0.52283831       2.35673685       3.02609418      -0.20771764       0.09031227       0.10173783      -0.20771764       0.09031227       0.10173783
H        2.03629585       1.35649771       2.85109020       0.49357864      -0.62786151      -0.10929723       0.49357864      -0.62786151      -0.10929723
10
Lattice="6.0 0.0 0.0 0.0 6.0 0.0 0.0 0.0 6.0" Properties=species:S:1:pos:R:3:dftb_forces_eV_per_Ang:R:3:forces:R:3 index=1400 energy=-291.1030531648631 dftb_energy_eV=-291.1030531648631 pos_unit=angstrom pbc="F F F"
O        4.32293901       2.18239977       2.99676672      -0.82985377      -0.27488447       0.06751597      -0.82985377      -0.27488447       0.06751597
C        3.79264286       3.50180342       3.01763081      -0.54462216      -0.56122814      -0.32011878      -0.54462216      -0.56122814      -0.32011878
C        2.30281434       3.45778813       2.98745260       0.44491655       0.31624751       0.08937275       0.44491655       0.31624751       0.08937275
C        1.59314451       2.33830168       3.00851504       0.08466325      -0.21994766       0.02458469       0.08466325      -0.21994766       0.02458469
H        5.27782175       2.25280293       2.95048876       1.09933336       0.00581825      -0.03911499       1.09933336       0.00581825      -0.03911499
H        4.13729295       4.03872206       3.91505991       0.20937660       0.36585750       0.44209998       0.20937660       0.36585750       0.44209998
H        4.14534208       4.06536176       2.13338350       0.26709743       0.31414299      -0.27687555       0.26709743       0.31414299      -0.27687555
H        1.83033869       4.44058861       2.94558199      -0.31457831       0.22997611       0.03438154      -0.31457831       0.22997611       0.03438154
H        0.51547668       2.35326656       3.01163172      -0.53953538       0.02159034      -0.05985694      -0.53953538       0.02159034      -0.05985694
H        2.08218715       1.36896505       3.03348895       0.12320243      -0.19757242       0.03801133       0.12320243      -0.19757242       0.03801133
10
Lattice="6.0 0.0 0.0 0.0 6.0 0.0 0.0 0.0 6.0" Properties=species:S:1:pos:R:3:dftb_forces_eV_per_Ang:R:3:forces:R:3 index=1500 energy=-291.05311725648687 dftb_energy_eV=-291.05311725648687 pos_unit=angstrom pbc="F F F"
O        4.30870005       2.19847155       3.03953476      -0.18171443      -1.14931149       0.17266919      -0.18171443      -1.14931149       0.17266919
C        3.80212339       3.50060612       3.03145827      -1.54013721      -0.11095764      -0.50774750      -1.54013721      -0.11095764      -0.50774750
C        2.28130659       3.46857447       3.03590668       1.36251263       1.05789204      -0.00803881       1.36251263       1.05789204      -0.00803881
C        1.59075006       2.34056396       3.02908691      -0.69657782      -0.30965827      -0.25651051      -0.69657782      -0.30965827      -0.25651051
H        5.26536592       2.20451653       2.89536331       0.54121585       0.14514620      -0.06289456       0.54121585       0.14514620      -0.06289456
H        4.17059406       4.07718790       3.87937317       0.30376074       0.53959567       0.81179144       0.30376074       0.53959567       0.81179144
H        4.14117606       4.03008461       2.12453095       0.15820215       0.37899300      -0.44554554       0.15820215       0.37899300      -0.44554554
H        1.83660123       4.48612607       3.01137085      -0.22355524      -0.40871673       0.08081966      -0.22355524      -0.40871673       0.08081966
H        0.49526485       2.30532652       2.97075412       0.11334670       0.13667438       0.10093950       0.11334670       0.13667438       0.10093950
H        2.10811779       1.38854230       2.98262099       0.16294662      -0.27965716       0.11451711       0.16294662      -0.27965716       0.11451711
10
Lattice="6.0 0.0 0.0 0.0 6.0 0.0 0.0 0.0 6.0" Properties=species:S:1:pos:R:3:dftb_forces_eV_per_Ang:R:3:forces:R:3 index=1600 energy=-291.10554573054407 dftb_energy_eV=-291.10554573054407 pos_unit=angstrom pbc="F F F"
O        4.31499172       2.18770125       3.03952707       0.07810940      -0.47599974       0.13976322       0.07810940      -0.47599974       0.13976322
C        3.80557580       3.50070354       3.01234357      -1.09357601      -0.12129185      -0.14762647      -1.09357601      -0.12129185      -0.14762647
C        2.30586387       3.45403084       3.03895852       0.79020383       0.35401554       0.05023480       0.79020383       0.35401554       0.05023480
C        1.59919573       2.33638897       3.00818765      -0.55191650      -0.36404885      -0.07975801      -0.55191650      -0.36404885      -0.07975801
H        5.27435327       2.25578942       2.91299887       0.50236358      -0.14396779      -0.03355819       0.50236358      -0.14396779      -0.03355819
H        4.17870677       4.10452345       3.86329641       0.20661830       0.20827233       0.30506523       0.20661830       0.20827233       0.30506523
H        4.13152195       4.00760188       2.08305666       0.17812703       0.33751183      -0.29744391       0.17812703       0.33751183      -0.29744391
H        1.80170883       4.41408506       3.07851453      -0.23981212       0.49271672       0.01093577      -0.23981212       0.49271672       0.01093577